LAMMPS Vesicle Data File

13300 atoms
12000 bonds

6 atom types
1 bond types

0.0 50.0 xlo xhi
0.0 50.0 ylo yhi
0.0 50.0 zlo zhi

Atoms

1 1 2 0.0 36.359 24.556 23.260
2 1 3 0.0 36.853 24.536 23.184
3 1 4 0.0 37.347 24.517 23.109
4 1 5 0.0 38.334 24.478 22.957
5 1 5 0.0 38.828 24.459 22.882
6 1 5 0.0 39.322 24.440 22.806
7 1 5 0.0 39.816 24.420 22.731
8 1 5 0.0 38.334 24.478 22.957
9 1 5 0.0 38.828 24.459 22.882
10 1 5 0.0 39.322 24.440 22.806
11 1 5 0.0 39.816 24.420 22.731
12 2 2 0.0 23.571 41.233 16.242
13 2 3 0.0 23.609 40.794 16.479
14 2 4 0.0 23.648 40.355 16.715
15 2 5 0.0 23.725 39.478 17.189
16 2 5 0.0 23.764 39.039 17.426
17 2 5 0.0 23.803 38.601 17.662
18 2 5 0.0 23.841 38.162 17.899
19 2 5 0.0 23.725 39.478 17.189
20 2 5 0.0 23.764 39.039 17.426
21 2 5 0.0 23.803 38.601 17.662
22 2 5 0.0 23.841 38.162 17.899
23 3 2 0.0 23.142 12.512 38.522
24 3 3 0.0 23.192 12.849 38.157
25 3 4 0.0 23.242 13.187 37.791
26 3 5 0.0 23.343 13.862 37.060
27 3 5 0.0 23.393 14.200 36.695
28 3 5 0.0 23.443 14.537 36.329
29 3 5 0.0 23.493 14.875 35.964
30 3 5 0.0 23.343 13.862 37.060
31 3 5 0.0 23.393 14.200 36.695
32 3 5 0.0 23.443 14.537 36.329
33 3 5 0.0 23.493 14.875 35.964
34 4 2 0.0 24.420 43.360 27.193
35 4 3 0.0 24.436 42.864 27.134
36 4 4 0.0 24.452 42.368 27.074
37 4 5 0.0 24.483 41.376 26.956
38 4 5 0.0 24.499 40.879 26.897
39 4 5 0.0 24.514 40.383 26.837
40 4 5 0.0 24.530 39.887 26.778
41 4 5 0.0 24.483 41.376 26.956
42 4 5 0.0 24.499 40.879 26.897
43 4 5 0.0 24.514 40.383 26.837
44 4 5 0.0 24.530 39.887 26.778
45 5 2 0.0 19.385 33.027 31.024
46 5 3 0.0 19.141 33.376 31.286
47 5 4 0.0 18.897 33.725 31.548
48 5 5 0.0 18.409 34.423 32.071
49 5 5 0.0 18.165 34.772 32.333
50 5 5 0.0 17.921 35.121 32.595
51 5 5 0.0 17.676 35.470 32.857
52 5 5 0.0 18.409 34.423 32.071
53 5 5 0.0 18.165 34.772 32.333
54 5 5 0.0 17.921 35.121 32.595
55 5 5 0.0 17.676 35.470 32.857
56 6 2 0.0 38.616 13.639 19.730
57 6 3 0.0 38.248 13.946 19.872
58 6 4 0.0 37.880 14.253 20.015
59 6 5 0.0 37.144 14.867 20.300
60 6 5 0.0 36.776 15.174 20.442
61 6 5 0.0 36.408 15.482 20.585
62 6 5 0.0 36.040 15.789 20.727
63 6 5 0.0 37.144 14.867 20.300
64 6 5 0.0 36.776 15.174 20.442
65 6 5 0.0 36.408 15.482 20.585
66 6 5 0.0 36.040 15.789 20.727
67 7 2 0.0 23.691 13.833 39.691
68 7 3 0.0 23.726 14.135 39.294
69 7 4 0.0 23.761 14.437 38.897
70 7 5 0.0 23.832 15.040 38.103
71 7 5 0.0 23.868 15.342 37.706
72 7 5 0.0 23.903 15.644 37.309
73 7 5 0.0 23.938 15.946 36.912
74 7 5 0.0 23.832 15.040 38.103
75 7 5 0.0 23.868 15.342 37.706
76 7 5 0.0 23.903 15.644 37.309
77 7 5 0.0 23.938 15.946 36.912
78 8 2 0.0 11.855 13.784 31.608
79 8 3 0.0 12.210 14.088 31.429
80 8 4 0.0 12.565 14.391 31.251
81 8 5 0.0 13.276 14.997 30.893
82 8 5 0.0 13.631 15.300 30.715
83 8 5 0.0 13.986 15.603 30.536
84 8 5 0.0 14.342 15.906 30.358
85 8 5 0.0 13.276 14.997 30.893
86 8 5 0.0 13.631 15.300 30.715
87 8 5 0.0 13.986 15.603 30.536
88 8 5 0.0 14.342 15.906 30.358
89 9 2 0.0 31.243 14.467 11.132
90 9 3 0.0 31.075 14.751 11.507
91 9 4 0.0 30.906 15.036 11.882
92 9 5 0.0 30.568 15.605 12.631
93 9 5 0.0 30.400 15.890 13.006
94 9 5 0.0 30.231 16.175 13.381
95 9 5 0.0 30.062 16.459 13.756
96 9 5 0.0 30.568 15.605 12.631
97 9 5 0.0 30.400 15.890 13.006
98 9 5 0.0 30.231 16.175 13.381
99 9 5 0.0 30.062 16.459 13.756
100 10 2 0.0 20.797 42.635 21.312
101 10 3 0.0 20.910 42.158 21.412
102 10 4 0.0 21.024 41.681 21.511
103 10 5 0.0 21.251 40.728 21.711
104 10 5 0.0 21.365 40.252 21.810
105 10 5 0.0 21.478 39.775 21.910
106 10 5 0.0 21.592 39.298 22.010
107 10 5 0.0 21.251 40.728 21.711
108 10 5 0.0 21.365 40.252 21.810
109 10 5 0.0 21.478 39.775 21.910
110 10 5 0.0 21.592 39.298 22.010
111 11 2 0.0 32.286 21.614 8.336
112 11 3 0.0 32.089 21.706 8.786
113 11 4 0.0 31.892 21.797 9.236
114 11 5 0.0 31.498 21.980 10.137
115 11 5 0.0 31.301 22.072 10.588
116 11 5 0.0 31.104 22.163 11.038
117 11 5 0.0 30.908 22.255 11.488
118 11 5 0.0 31.498 21.980 10.137
119 11 5 0.0 31.301 22.072 10.588
120 11 5 0.0 31.104 22.163 11.038
121 11 5 0.0 30.908 22.255 11.488
122 12 2 0.0 28.625 22.467 35.616
123 12 3 0.0 28.782 22.357 36.077
124 12 4 0.0 28.940 22.247 36.539
125 12 5 0.0 29.255 22.027 37.462
126 12 5 0.0 29.413 21.916 37.924
127 12 5 0.0 29.570 21.806 38.385
128 12 5 0.0 29.728 21.696 38.847
129 12 5 0.0 29.255 22.027 37.462
130 12 5 0.0 29.413 21.916 37.924
131 12 5 0.0 29.570 21.806 38.385
132 12 5 0.0 29.728 21.696 38.847
133 13 2 0.0 35.268 33.811 37.617
134 13 3 0.0 34.990 33.573 37.276
135 13 4 0.0 34.713 33.335 36.935
136 13 5 0.0 34.158 32.859 36.253
137 13 5 0.0 33.880 32.620 35.912
138 13 5 0.0 33.603 32.382 35.571
139 13 5 0.0 33.325 32.144 35.230
140 13 5 0.0 34.158 32.859 36.253
141 13 5 0.0 33.880 32.620 35.912
142 13 5 0.0 33.603 32.382 35.571
143 13 5 0.0 33.325 32.144 35.230
144 14 2 0.0 25.088 24.805 6.501
145 14 3 0.0 25.085 24.810 7.001
146 14 4 0.0 25.083 24.815 7.501
147 14 5 0.0 25.078 24.826 8.501
148 14 5 0.0 25.076 24.831 9.001
149 14 5 0.0 25.073 24.836 9.501
150 14 5 0.0 25.071 24.842 10.001
151 14 5 0.0 25.078 24.826 8.501
152 14 5 0.0 25.076 24.831 9.001
153 14 5 0.0 25.073 24.836 9.501
154 14 5 0.0 25.071 24.842 10.001
155 15 2 0.0 25.748 23.629 6.566
156 15 3 0.0 25.728 23.666 7.064
157 15 4 0.0 25.707 23.703 7.562
158 15 5 0.0 25.667 23.777 8.559
159 15 5 0.0 25.647 23.814 9.057
160 15 5 0.0 25.627 23.851 9.555
161 15 5 0.0 25.606 23.888 10.054
162 15 5 0.0 25.667 23.777 8.559
163 15 5 0.0 25.647 23.814 9.057
164 15 5 0.0 25.627 23.851 9.555
165 15 5 0.0 25.606 23.888 10.054
166 16 2 0.0 27.407 29.472 14.682
167 16 3 0.0 27.512 29.666 14.233
168 16 4 0.0 27.616 29.860 13.785
169 16 5 0.0 27.826 30.249 12.888
170 16 5 0.0 27.930 30.444 12.439
171 16 5 0.0 28.035 30.638 11.990
172 16 5 0.0 28.140 30.833 11.542
173 16 5 0.0 27.826 30.249 12.888
174 16 5 0.0 27.930 30.444 12.439
175 16 5 0.0 28.035 30.638 11.990
176 16 5 0.0 28.140 30.833 11.542
177 17 2 0.0 11.483 33.685 34.171
178 17 3 0.0 11.848 33.451 33.923
179 17 4 0.0 12.213 33.216 33.675
180 17 5 0.0 12.944 32.746 33.179
181 17 5 0.0 13.309 32.512 32.931
182 17 5 0.0 13.675 32.277 32.683
183 17 5 0.0 14.040 32.042 32.436
184 17 5 0.0 12.944 32.746 33.179
185 17 5 0.0 13.309 32.512 32.931
186 17 5 0.0 13.675 32.277 32.683
187 17 5 0.0 14.040 32.042 32.436
188 18 2 0.0 23.161 6.901 21.640
189 18 3 0.0 23.210 7.390 21.731
190 18 4 0.0 23.260 7.879 21.822
191 18 5 0.0 23.359 8.857 22.004
192 18 5 0.0 23.409 9.347 22.094
193 18 5 0.0 23.459 9.836 22.185
194 18 5 0.0 23.509 10.325 22.276
195 18 5 0.0 23.359 8.857 22.004
196 18 5 0.0 23.409 9.347 22.094
197 18 5 0.0 23.459 9.836 22.185
198 18 5 0.0 23.509 10.325 22.276
199 19 2 0.0 28.994 26.417 6.992
200 19 3 0.0 28.886 26.379 7.479
201 19 4 0.0 28.778 26.341 7.965
202 19 5 0.0 28.562 26.264 8.939
203 19 5 0.0 28.454 26.226 9.425
204 19 5 0.0 28.346 26.187 9.912
205 19 5 0.0 28.238 26.149 10.399
206 19 5 0.0 28.562 26.264 8.939
207 19 5 0.0 28.454 26.226 9.425
208 19 5 0.0 28.346 26.187 9.912
209 19 5 0.0 28.238 26.149 10.399
210 20 2 0.0 42.209 30.553 21.094
211 20 3 0.0 41.744 30.403 21.199
212 20 4 0.0 41.279 30.253 21.305
213 20 5 0.0 40.349 29.953 21.516
214 20 5 0.0 39.884 29.803 21.621
215 20 5 0.0 39.418 29.653 21.727
216 20 5 0.0 38.953 29.502 21.833
217 20 5 0.0 40.349 29.953 21.516
218 20 5 0.0 39.884 29.803 21.621
219 20 5 0.0 39.418 29.653 21.727
220 20 5 0.0 38.953 29.502 21.833
221 21 2 0.0 13.188 26.201 39.187
222 21 3 0.0 13.507 26.169 38.804
223 21 4 0.0 13.826 26.136 38.421
224 21 5 0.0 14.465 26.071 37.654
225 21 5 0.0 14.784 26.039 37.270
226 21 5 0.0 15.103 26.006 36.887
227 21 5 0.0 15.423 25.974 36.503
228 21 5 0.0 14.465 26.071 37.654
229 21 5 0.0 14.784 26.039 37.270
230 21 5 0.0 15.103 26.006 36.887
231 21 5 0.0 15.423 25.974 36.503
232 22 2 0.0 19.719 16.808 18.897
233 22 3 0.0 19.490 16.451 18.632
234 22 4 0.0 19.260 16.095 18.366
235 22 5 0.0 18.801 15.383 17.836
236 22 5 0.0 18.571 15.027 17.570
237 22 5 0.0 18.342 14.670 17.305
238 22 5 0.0 18.112 14.314 17.040
239 22 5 0.0 18.801 15.383 17.836
240 22 5 0.0 18.571 15.027 17.570
241 22 5 0.0 18.342 14.670 17.305
242 22 5 0.0 18.112 14.314 17.040
243 23 2 0.0 28.527 7.008 27.473
244 23 3 0.0 28.431 7.495 27.406
245 23 4 0.0 28.336 7.981 27.339
246 23 5 0.0 28.145 8.953 27.205
247 23 5 0.0 28.050 9.440 27.138
248 23 5 0.0 27.955 9.926 27.072
249 23 5 0.0 27.859 10.412 27.005
250 23 5 0.0 28.145 8.953 27.205
251 23 5 0.0 28.050 9.440 27.138
252 23 5 0.0 27.955 9.926 27.072
253 23 5 0.0 27.859 10.412 27.005
254 24 2 0.0 22.777 8.346 32.742
255 24 3 0.0 22.837 8.796 32.533
256 24 4 0.0 22.898 9.246 32.324
257 24 5 0.0 23.018 10.146 31.905
258 24 5 0.0 23.078 10.596 31.696
259 24 5 0.0 23.138 11.046 31.487
260 24 5 0.0 23.198 11.496 31.277
261 24 5 0.0 23.018 10.146 31.905
262 24 5 0.0 23.078 10.596 31.696
263 24 5 0.0 23.138 11.046 31.487
264 24 5 0.0 23.198 11.496 31.277
265 25 2 0.0 14.286 12.030 17.303
266 25 3 0.0 14.576 12.380 17.511
267 25 4 0.0 14.865 12.731 17.719
268 25 5 0.0 15.445 13.432 18.135
269 25 5 0.0 15.734 13.782 18.343
270 25 5 0.0 16.024 14.133 18.551
271 25 5 0.0 16.313 14.483 18.759
272 25 5 0.0 15.445 13.432 18.135
273 25 5 0.0 15.734 13.782 18.343
274 25 5 0.0 16.024 14.133 18.551
275 25 5 0.0 16.313 14.483 18.759
276 26 2 0.0 34.136 23.341 31.784
277 26 3 0.0 34.533 23.269 32.079
278 26 4 0.0 34.931 23.196 32.374
279 26 5 0.0 35.725 23.052 32.964
280 26 5 0.0 36.122 22.980 33.259
281 26 5 0.0 36.520 22.908 33.554
282 26 5 0.0 36.917 22.836 33.849
283 26 5 0.0 35.725 23.052 32.964
284 26 5 0.0 36.122 22.980 33.259
285 26 5 0.0 36.520 22.908 33.554
286 26 5 0.0 36.917 22.836 33.849
287 27 2 0.0 42.044 18.974 21.069
288 27 3 0.0 41.583 19.137 21.175
289 27 4 0.0 41.122 19.300 21.281
290 27 5 0.0 40.201 19.626 21.494
291 27 5 0.0 39.740 19.789 21.600
292 27 5 0.0 39.280 19.952 21.706
293 27 5 0.0 38.819 20.114 21.812
294 27 5 0.0 40.201 19.626 21.494
295 27 5 0.0 39.740 19.789 21.600
296 27 5 0.0 39.280 19.952 21.706
297 27 5 0.0 38.819 20.114 21.812
298 28 2 0.0 26.794 33.192 41.490
299 28 3 0.0 26.746 32.970 41.044
300 28 4 0.0 26.697 32.749 40.599
301 28 5 0.0 26.600 32.306 39.707
302 28 5 0.0 26.552 32.085 39.262
303 28 5 0.0 26.503 31.863 38.816
304 28 5 0.0 26.455 31.642 38.370
305 28 5 0.0 26.600 32.306 39.707
306 28 5 0.0 26.552 32.085 39.262
307 28 5 0.0 26.503 31.863 38.816
308 28 5 0.0 26.455 31.642 38.370
309 29 2 0.0 14.921 30.538 25.004
310 29 3 0.0 14.483 30.778 25.004
311 29 4 0.0 14.045 31.019 25.004
312 29 5 0.0 13.168 31.501 25.004
313 29 5 0.0 12.730 31.741 25.005
314 29 5 0.0 12.292 31.982 25.005
315 29 5 0.0 11.854 32.223 25.005
316 29 5 0.0 13.168 31.501 25.004
317 29 5 0.0 12.730 31.741 25.005
318 29 5 0.0 12.292 31.982 25.005
319 29 5 0.0 11.854 32.223 25.005
320 30 2 0.0 34.181 26.338 18.205
321 30 3 0.0 34.580 26.396 17.909
322 30 4 0.0 34.979 26.454 17.614
323 30 5 0.0 35.777 26.570 17.023
324 30 5 0.0 36.177 26.628 16.728
325 30 5 0.0 36.576 26.686 16.432
326 30 5 0.0 36.975 26.745 16.137
327 30 5 0.0 35.777 26.570 17.023
328 30 5 0.0 36.177 26.628 16.728
329 30 5 0.0 36.576 26.686 16.432
330 30 5 0.0 36.975 26.745 16.137
331 31 2 0.0 15.211 26.556 30.832
332 31 3 0.0 14.786 26.623 31.086
333 31 4 0.0 14.360 26.691 31.339
334 31 5 0.0 13.509 26.826 31.846
335 31 5 0.0 13.084 26.894 32.100
336 31 5 0.0 12.658 26.961 32.354
337 31 5 0.0 12.232 27.029 32.607
338 31 5 0.0 13.509 26.826 31.846
339 31 5 0.0 13.084 26.894 32.100
340 31 5 0.0 12.658 26.961 32.354
341 31 5 0.0 12.232 27.029 32.607
342 32 2 0.0 35.053 37.880 16.323
343 32 3 0.0 34.781 37.532 16.558
344 32 4 0.0 34.510 37.184 16.792
345 32 5 0.0 33.966 36.488 17.261
346 32 5 0.0 33.695 36.140 17.496
347 32 5 0.0 33.423 35.792 17.730
348 32 5 0.0 33.151 35.443 17.965
349 32 5 0.0 33.966 36.488 17.261
350 32 5 0.0 33.695 36.140 17.496
351 32 5 0.0 33.423 35.792 17.730
352 32 5 0.0 33.151 35.443 17.965
353 33 2 0.0 11.175 36.571 29.150
354 33 3 0.0 11.548 36.258 29.038
355 33 4 0.0 11.922 35.945 28.926
356 33 5 0.0 12.669 35.320 28.701
357 33 5 0.0 13.043 35.007 28.589
358 33 5 0.0 13.417 34.695 28.477
359 33 5 0.0 13.790 34.382 28.365
360 33 5 0.0 12.669 35.320 28.701
361 33 5 0.0 13.043 35.007 28.589
362 33 5 0.0 13.417 34.695 28.477
363 33 5 0.0 13.790 34.382 28.365
364 34 2 0.0 15.044 40.235 28.321
365 34 3 0.0 15.313 39.823 28.231
366 34 4 0.0 15.582 39.411 28.142
367 34 5 0.0 16.120 38.588 27.962
368 34 5 0.0 16.389 38.176 27.872
369 34 5 0.0 16.658 37.764 27.783
370 34 5 0.0 16.928 37.353 27.693
371 34 5 0.0 16.120 38.588 27.962
372 34 5 0.0 16.389 38.176 27.872
373 34 5 0.0 16.658 37.764 27.783
374 34 5 0.0 16.928 37.353 27.693
375 35 2 0.0 17.298 37.853 14.150
376 35 3 0.0 17.506 37.506 14.443
377 35 4 0.0 17.714 37.159 14.737
378 35 5 0.0 18.131 36.464 15.323
379 35 5 0.0 18.339 36.116 15.616
380 35 5 0.0 18.547 35.769 15.910
381 35 5 0.0 18.755 35.422 16.203
382 35 5 0.0 18.131 36.464 15.323
383 35 5 0.0 18.339 36.116 15.616
384 35 5 0.0 18.547 35.769 15.910
385 35 5 0.0 18.755 35.422 16.203
386 36 2 0.0 13.623 23.944 23.695
387 36 3 0.0 13.129 23.898 23.638
388 36 4 0.0 12.634 23.852 23.582
389 36 5 0.0 11.645 23.760 23.468
390 36 5 0.0 11.150 23.714 23.412
391 36 5 0.0 10.655 23.668 23.355
392 36 5 0.0 10.161 23.622 23.298
393 36 5 0.0 11.645 23.760 23.468
394 36 5 0.0 11.150 23.714 23.412
395 36 5 0.0 10.655 23.668 23.355
396 36 5 0.0 10.161 23.622 23.298
397 37 2 0.0 27.011 16.535 41.326
398 37 3 0.0 26.956 16.764 40.885
399 37 4 0.0 26.902 16.992 40.444
400 37 5 0.0 26.793 17.450 39.561
401 37 5 0.0 26.739 17.679 39.120
402 37 5 0.0 26.685 17.908 38.679
403 37 5 0.0 26.630 18.136 38.238
404 37 5 0.0 26.793 17.450 39.561
405 37 5 0.0 26.739 17.679 39.120
406 37 5 0.0 26.685 17.908 38.679
407 37 5 0.0 26.630 18.136 38.238
408 38 2 0.0 31.818 24.311 15.765
409 38 3 0.0 32.115 24.281 15.363
410 38 4 0.0 32.411 24.251 14.962
411 38 5 0.0 33.004 24.191 14.159
412 38 5 0.0 33.301 24.161 13.757
413 38 5 0.0 33.597 24.131 13.356
414 38 5 0.0 33.893 24.101 12.954
415 38 5 0.0 33.004 24.191 14.159
416 38 5 0.0 33.301 24.161 13.757
417 38 5 0.0 33.597 24.131 13.356
418 38 5 0.0 33.893 24.101 12.954
419 39 2 0.0 26.613 14.618 29.676
420 39 3 0.0 26.684 14.167 29.879
421 39 4 0.0 26.754 13.715 30.082
422 39 5 0.0 26.894 12.813 30.489
423 39 5 0.0 26.964 12.361 30.692
424 39 5 0.0 27.034 11.910 30.896
425 39 5 0.0 27.104 11.458 31.099
426 39 5 0.0 26.894 12.813 30.489
427 39 5 0.0 26.964 12.361 30.692
428 39 5 0.0 27.034 11.910 30.896
429 39 5 0.0 27.104 11.458 31.099
430 40 2 0.0 13.987 22.646 27.330
431 40 3 0.0 13.508 22.543 27.431
432 40 4 0.0 13.030 22.441 27.532
433 40 5 0.0 12.072 22.236 27.735
434 40 5 0.0 11.593 22.134 27.836
435 40 5 0.0 11.114 22.031 27.937
436 40 5 0.0 10.636 21.929 28.039
437 40 5 0.0 12.072 22.236 27.735
438 40 5 0.0 11.593 22.134 27.836
439 40 5 0.0 11.114 22.031 27.937
440 40 5 0.0 10.636 21.929 28.039
441 41 2 0.0 18.828 18.514 8.811
442 41 3 0.0 18.995 18.689 9.248
443 41 4 0.0 19.162 18.864 9.686
444 41 5 0.0 19.496 19.215 10.561
445 41 5 0.0 19.662 19.390 10.999
446 41 5 0.0 19.829 19.566 11.436
447 41 5 0.0 19.996 19.741 11.874
448 41 5 0.0 19.496 19.215 10.561
449 41 5 0.0 19.662 19.390 10.999
450 41 5 0.0 19.829 19.566 11.436
451 41 5 0.0 19.996 19.741 11.874
452 42 2 0.0 24.870 30.261 35.225
453 42 3 0.0 24.864 30.490 35.670
454 42 4 0.0 24.859 30.719 36.114
455 42 5 0.0 24.848 31.176 37.003
456 42 5 0.0 24.842 31.405 37.448
457 42 5 0.0 24.836 31.634 37.893
458 42 5 0.0 24.831 31.862 38.337
459 42 5 0.0 24.848 31.176 37.003
460 42 5 0.0 24.842 31.405 37.448
461 42 5 0.0 24.836 31.634 37.893
462 42 5 0.0 24.831 31.862 38.337
463 43 2 0.0 29.611 28.250 35.021
464 43 3 0.0 29.812 28.392 35.457
465 43 4 0.0 30.012 28.533 35.892
466 43 5 0.0 30.413 28.816 36.764
467 43 5 0.0 30.614 28.957 37.200
468 43 5 0.0 30.814 29.098 37.635
469 43 5 0.0 31.015 29.240 38.071
470 43 5 0.0 30.413 28.816 36.764
471 43 5 0.0 30.614 28.957 37.200
472 43 5 0.0 30.814 29.098 37.635
473 43 5 0.0 31.015 29.240 38.071
474 44 2 0.0 22.314 27.412 35.919
475 44 3 0.0 22.197 27.516 36.393
476 44 4 0.0 22.080 27.621 36.868
477 44 5 0.0 21.847 27.831 37.818
478 44 5 0.0 21.730 27.936 38.292
479 44 5 0.0 21.613 28.041 38.767
480 44 5 0.0 21.496 28.146 39.242
481 44 5 0.0 21.847 27.831 37.818
482 44 5 0.0 21.730 27.936 38.292
483 44 5 0.0 21.613 28.041 38.767
484 44 5 0.0 21.496 28.146 39.242
485 45 2 0.0 39.378 17.716 15.918
486 45 3 0.0 38.989 17.913 16.163
487 45 4 0.0 38.600 18.110 16.409
488 45 5 0.0 37.823 18.504 16.900
489 45 5 0.0 37.435 18.701 17.145
490 45 5 0.0 37.046 18.897 17.391
491 45 5 0.0 36.657 19.094 17.636
492 45 5 0.0 37.823 18.504 16.900
493 45 5 0.0 37.435 18.701 17.145
494 45 5 0.0 37.046 18.897 17.391
495 45 5 0.0 36.657 19.094 17.636
496 46 2 0.0 33.410 32.786 24.046
497 46 3 0.0 33.775 33.124 24.004
498 46 4 0.0 34.141 33.463 23.963
499 46 5 0.0 34.872 34.140 23.880
500 46 5 0.0 35.238 34.478 23.838
501 46 5 0.0 35.603 34.817 23.797
502 46 5 0.0 35.969 35.155 23.755
503 46 5 0.0 34.872 34.140 23.880
504 46 5 0.0 35.238 34.478 23.838
505 46 5 0.0 35.603 34.817 23.797
506 46 5 0.0 35.969 35.155 23.755
507 47 2 0.0 31.438 17.685 31.107
508 47 3 0.0 31.717 17.367 31.373
509 47 4 0.0 31.997 17.049 31.638
510 47 5 0.0 32.557 16.413 32.169
511 47 5 0.0 32.837 16.095 32.435
512 47 5 0.0 33.117 15.777 32.700
513 47 5 0.0 33.397 15.459 32.966
514 47 5 0.0 32.557 16.413 32.169
515 47 5 0.0 32.837 16.095 32.435
516 47 5 0.0 33.117 15.777 32.700
517 47 5 0.0 33.397 15.459 32.966
518 48 2 0.0 19.098 29.767 16.358
519 48 3 0.0 18.841 29.975 15.982
520 48 4 0.0 18.585 30.182 15.606
521 48 5 0.0 18.071 30.597 14.855
522 48 5 0.0 17.815 30.804 14.479
523 48 5 0.0 17.558 31.011 14.103
524 48 5 0.0 17.302 31.218 13.728
525 48 5 0.0 18.071 30.597 14.855
526 48 5 0.0 17.815 30.804 14.479
527 48 5 0.0 17.558 31.011 14.103
528 48 5 0.0 17.302 31.218 13.728
529 49 2 0.0 29.066 14.814 28.458
530 49 3 0.0 29.243 14.371 28.609
531 49 4 0.0 29.420 13.928 28.759
532 49 5 0.0 29.774 13.043 29.060
533 49 5 0.0 29.950 12.600 29.210
534 49 5 0.0 30.127 12.157 29.360
535 49 5 0.0 30.304 11.714 29.511
536 49 5 0.0 29.774 13.043 29.060
537 49 5 0.0 29.950 12.600 29.210
538 49 5 0.0 30.127 12.157 29.360
539 49 5 0.0 30.304 11.714 29.511
540 50 2 0.0 9.152 34.408 26.608
541 50 3 0.0 9.581 34.154 26.564
542 50 4 0.0 10.009 33.900 26.521
543 50 5 0.0 10.866 33.391 26.434
544 50 5 0.0 11.294 33.137 26.390
545 50 5 0.0 11.722 32.883 26.347
546 50 5 0.0 12.150 32.628 26.304
547 50 5 0.0 10.866 33.391 26.434
548 50 5 0.0 11.294 33.137 26.390
549 50 5 0.0 11.722 32.883 26.347
550 50 5 0.0 12.150 32.628 26.304
551 51 2 0.0 22.789 18.246 15.959
552 51 3 0.0 22.693 17.952 15.566
553 51 4 0.0 22.597 17.659 15.172
554 51 5 0.0 22.405 17.071 14.386
555 51 5 0.0 22.309 16.778 13.993
556 51 5 0.0 22.213 16.484 13.600
557 51 5 0.0 22.116 16.190 13.207
558 51 5 0.0 22.405 17.071 14.386
559 51 5 0.0 22.309 16.778 13.993
560 51 5 0.0 22.213 16.484 13.600
561 51 5 0.0 22.116 16.190 13.207
562 52 2 0.0 15.809 18.223 26.364
563 52 3 0.0 15.410 17.929 26.423
564 52 4 0.0 15.010 17.634 26.483
565 52 5 0.0 14.211 17.045 26.601
566 52 5 0.0 13.811 16.750 26.661
567 52 5 0.0 13.412 16.456 26.720
568 52 5 0.0 13.012 16.161 26.779
569 52 5 0.0 14.211 17.045 26.601
570 52 5 0.0 13.811 16.750 26.661
571 52 5 0.0 13.412 16.456 26.720
572 52 5 0.0 13.012 16.161 26.779
573 53 2 0.0 27.144 36.304 39.487
574 53 3 0.0 27.086 35.998 39.096
575 53 4 0.0 27.028 35.693 38.704
576 53 5 0.0 26.912 35.082 37.921
577 53 5 0.0 26.854 34.776 37.529
578 53 5 0.0 26.796 34.471 37.138
579 53 5 0.0 26.738 34.165 36.746
580 53 5 0.0 26.912 35.082 37.921
581 53 5 0.0 26.854 34.776 37.529
582 53 5 0.0 26.796 34.471 37.138
583 53 5 0.0 26.738 34.165 36.746
584 54 2 0.0 14.312 29.114 23.949
585 54 3 0.0 13.848 29.292 23.903
586 54 4 0.0 13.383 29.471 23.857
587 54 5 0.0 12.454 29.829 23.766
588 54 5 0.0 11.989 30.008 23.720
589 54 5 0.0 11.524 30.187 23.675
590 54 5 0.0 11.060 30.366 23.629
591 54 5 0.0 12.454 29.829 23.766
592 54 5 0.0 11.989 30.008 23.720
593 54 5 0.0 11.524 30.187 23.675
594 54 5 0.0 11.060 30.366 23.629
595 55 2 0.0 15.083 39.284 18.685
596 55 3 0.0 15.351 38.898 18.856
597 55 4 0.0 15.619 38.511 19.026
598 55 5 0.0 16.155 37.739 19.368
599 55 5 0.0 16.423 37.353 19.538
600 55 5 0.0 16.691 36.967 19.709
601 55 5 0.0 16.959 36.581 19.880
602 55 5 0.0 16.155 37.739 19.368
603 55 5 0.0 16.423 37.353 19.538
604 55 5 0.0 16.691 36.967 19.709
605 55 5 0.0 16.959 36.581 19.880
606 56 2 0.0 28.839 14.583 22.001
607 56 3 0.0 29.006 14.130 21.870
608 56 4 0.0 29.173 13.677 21.740
609 56 5 0.0 29.507 12.771 21.479
610 56 5 0.0 29.674 12.318 21.348
611 56 5 0.0 29.841 11.866 21.218
612 56 5 0.0 30.008 11.413 21.088
613 56 5 0.0 29.507 12.771 21.479
614 56 5 0.0 29.674 12.318 21.348
615 56 5 0.0 29.841 11.866 21.218
616 56 5 0.0 30.008 11.413 21.088
617 57 2 0.0 21.812 13.986 24.119
618 57 3 0.0 21.673 13.507 24.081
619 57 4 0.0 21.535 13.028 24.043
620 57 5 0.0 21.257 12.070 23.966
621 57 5 0.0 21.119 11.592 23.928
622 57 5 0.0 20.980 11.113 23.889
623 57 5 0.0 20.842 10.634 23.851
624 57 5 0.0 21.257 12.070 23.966
625 57 5 0.0 21.119 11.592 23.928
626 57 5 0.0 20.980 11.113 23.889
627 57 5 0.0 20.842 10.634 23.851
628 58 2 0.0 20.453 18.578 41.743
629 58 3 0.0 20.576 18.751 41.291
630 58 4 0.0 20.699 18.925 40.838
631 58 5 0.0 20.945 19.272 39.933
632 58 5 0.0 21.068 19.446 39.481
633 58 5 0.0 21.190 19.619 39.028
634 58 5 0.0 21.313 19.793 38.575
635 58 5 0.0 20.945 19.272 39.933
636 58 5 0.0 21.068 19.446 39.481
637 58 5 0.0 21.190 19.619 39.028
638 58 5 0.0 21.313 19.793 38.575
639 59 2 0.0 6.608 25.131 26.995
640 59 3 0.0 7.105 25.128 26.941
641 59 4 0.0 7.603 25.124 26.888
642 59 5 0.0 8.597 25.117 26.780
643 59 5 0.0 9.094 25.113 26.726
644 59 5 0.0 9.591 25.110 26.672
645 59 5 0.0 10.088 25.106 26.618
646 59 5 0.0 8.597 25.117 26.780
647 59 5 0.0 9.094 25.113 26.726
648 59 5 0.0 9.591 25.110 26.672
649 59 5 0.0 10.088 25.106 26.618
650 60 2 0.0 27.024 10.955 36.870
651 60 3 0.0 26.969 11.335 36.549
652 60 4 0.0 26.914 11.714 36.229
653 60 5 0.0 26.805 12.474 35.587
654 60 5 0.0 26.750 12.853 35.266
655 60 5 0.0 26.695 13.233 34.945
656 60 5 0.0 26.641 13.612 34.624
657 60 5 0.0 26.805 12.474 35.587
658 60 5 0.0 26.750 12.853 35.266
659 60 5 0.0 26.695 13.233 34.945
660 60 5 0.0 26.641 13.612 34.624
661 61 2 0.0 24.120 20.813 14.326
662 61 3 0.0 24.081 20.631 13.861
663 61 4 0.0 24.043 20.449 13.397
664 61 5 0.0 23.967 20.085 12.469
665 61 5 0.0 23.928 19.903 12.005
666 61 5 0.0 23.890 19.721 11.541
667 61 5 0.0 23.852 19.539 11.077
668 61 5 0.0 23.967 20.085 12.469
669 61 5 0.0 23.928 19.903 12.005
670 61 5 0.0 23.890 19.721 11.541
671 61 5 0.0 23.852 19.539 11.077
672 62 2 0.0 12.932 36.817 32.548
673 62 3 0.0 13.258 36.498 32.344
674 62 4 0.0 13.584 36.178 32.140
675 62 5 0.0 14.237 35.539 31.732
676 62 5 0.0 14.563 35.220 31.528
677 62 5 0.0 14.889 34.901 31.324
678 62 5 0.0 15.215 34.581 31.120
679 62 5 0.0 14.237 35.539 31.732
680 62 5 0.0 14.563 35.220 31.528
681 62 5 0.0 14.889 34.901 31.324
682 62 5 0.0 15.215 34.581 31.120
683 63 2 0.0 41.591 16.960 26.527
684 63 3 0.0 41.143 17.177 26.486
685 63 4 0.0 40.694 17.394 26.444
686 63 5 0.0 39.798 17.829 26.362
687 63 5 0.0 39.349 18.046 26.321
688 63 5 0.0 38.901 18.263 26.279
689 63 5 0.0 38.452 18.481 26.238
690 63 5 0.0 39.798 17.829 26.362
691 63 5 0.0 39.349 18.046 26.321
692 63 5 0.0 38.901 18.263 26.279
693 63 5 0.0 38.452 18.481 26.238
694 64 2 0.0 20.556 40.718 16.314
695 64 3 0.0 20.676 40.293 16.549
696 64 4 0.0 20.797 39.868 16.783
697 64 5 0.0 21.037 39.019 17.253
698 64 5 0.0 21.157 38.594 17.488
699 64 5 0.0 21.277 38.169 17.722
700 64 5 0.0 21.397 37.744 17.957
701 64 5 0.0 21.037 39.019 17.253
702 64 5 0.0 21.157 38.594 17.488
703 64 5 0.0 21.277 38.169 17.722
704 64 5 0.0 21.397 37.744 17.957
705 65 2 0.0 6.784 22.316 23.200
706 65 3 0.0 7.277 22.389 23.248
707 65 4 0.0 7.769 22.461 23.297
708 65 5 0.0 8.754 22.607 23.394
709 65 5 0.0 9.246 22.679 23.443
710 65 5 0.0 9.738 22.752 23.492
711 65 5 0.0 10.231 22.824 23.540
712 65 5 0.0 8.754 22.607 23.394
713 65 5 0.0 9.246 22.679 23.443
714 65 5 0.0 9.738 22.752 23.492
715 65 5 0.0 10.231 22.824 23.540
716 66 2 0.0 20.101 16.921 31.555
717 66 3 0.0 19.888 16.569 31.840
718 66 4 0.0 19.675 16.218 32.125
719 66 5 0.0 19.249 15.516 32.696
720 66 5 0.0 19.036 15.164 32.981
721 66 5 0.0 18.823 14.813 33.266
722 66 5 0.0 18.610 14.462 33.551
723 66 5 0.0 19.249 15.516 32.696
724 66 5 0.0 19.036 15.164 32.981
725 66 5 0.0 18.823 14.813 33.266
726 66 5 0.0 18.610 14.462 33.551
727 67 2 0.0 7.995 20.693 19.125
728 67 3 0.0 8.454 20.810 19.284
729 67 4 0.0 8.914 20.926 19.442
730 67 5 0.0 9.833 21.159 19.760
731 67 5 0.0 10.293 21.275 19.919
732 67 5 0.0 10.752 21.392 20.078
733 67 5 0.0 11.212 21.508 20.236
734 67 5 0.0 9.833 21.159 19.760
735 67 5 0.0 10.293 21.275 19.919
736 67 5 0.0 10.752 21.392 20.078
737 67 5 0.0 11.212 21.508 20.236
738 68 2 0.0 33.044 12.918 13.529
739 68 3 0.0 32.826 13.245 13.839
740 68 4 0.0 32.609 13.571 14.149
741 68 5 0.0 32.174 14.224 14.769
742 68 5 0.0 31.957 14.551 15.079
743 68 5 0.0 31.739 14.877 15.389
744 68 5 0.0 31.522 15.204 15.699
745 68 5 0.0 32.174 14.224 14.769
746 68 5 0.0 31.957 14.551 15.079
747 68 5 0.0 31.739 14.877 15.389
748 68 5 0.0 31.522 15.204 15.699
749 69 2 0.0 33.342 17.731 21.866
750 69 3 0.0 33.705 17.415 21.729
751 69 4 0.0 34.068 17.099 21.593
752 69 5 0.0 34.793 16.467 21.321
753 69 5 0.0 35.156 16.151 21.184
754 69 5 0.0 35.519 15.835 21.048
755 69 5 0.0 35.881 15.519 20.912
756 69 5 0.0 34.793 16.467 21.321
757 69 5 0.0 35.156 16.151 21.184
758 69 5 0.0 35.519 15.835 21.048
759 69 5 0.0 35.881 15.519 20.912
760 70 2 0.0 21.493 16.085 18.638
761 70 3 0.0 21.340 15.698 18.361
762 70 4 0.0 21.188 15.310 18.085
763 70 5 0.0 20.883 14.535 17.531
764 70 5 0.0 20.730 14.147 17.255
765 70 5 0.0 20.578 13.760 16.978
766 70 5 0.0 20.425 13.372 16.702
767 70 5 0.0 20.883 14.535 17.531
768 70 5 0.0 20.730 14.147 17.255
769 70 5 0.0 20.578 13.760 16.978
770 70 5 0.0 20.425 13.372 16.702
771 71 2 0.0 11.634 24.026 37.753
772 71 3 0.0 11.995 24.052 37.408
773 71 4 0.0 12.356 24.079 37.064
774 71 5 0.0 13.079 24.131 36.374
775 71 5 0.0 13.440 24.158 36.030
776 71 5 0.0 13.801 24.184 35.685
777 71 5 0.0 14.162 24.210 35.340
778 71 5 0.0 13.079 24.131 36.374
779 71 5 0.0 13.440 24.158 36.030
780 71 5 0.0 13.801 24.184 35.685
781 71 5 0.0 14.162 24.210 35.340
782 72 2 0.0 19.993 20.877 15.503
783 72 3 0.0 19.776 20.698 15.090
784 72 4 0.0 19.558 20.519 14.677
785 72 5 0.0 19.123 20.160 13.852
786 72 5 0.0 18.905 19.981 13.439
787 72 5 0.0 18.687 19.802 13.026
788 72 5 0.0 18.470 19.623 12.613
789 72 5 0.0 19.123 20.160 13.852
790 72 5 0.0 18.905 19.981 13.439
791 72 5 0.0 18.687 19.802 13.026
792 72 5 0.0 18.470 19.623 12.613
793 73 2 0.0 32.319 41.849 27.188
794 73 3 0.0 32.121 41.394 27.129
795 73 4 0.0 31.923 40.939 27.070
796 73 5 0.0 31.527 40.028 26.951
797 73 5 0.0 31.330 39.572 26.892
798 73 5 0.0 31.132 39.117 26.833
799 73 5 0.0 30.934 38.662 26.774
800 73 5 0.0 31.527 40.028 26.951
801 73 5 0.0 31.330 39.572 26.892
802 73 5 0.0 31.132 39.117 26.833
803 73 5 0.0 30.934 38.662 26.774
804 74 2 0.0 41.668 21.462 32.205
805 74 3 0.0 41.217 21.558 32.010
806 74 4 0.0 40.767 21.653 31.816
807 74 5 0.0 39.866 21.845 31.426
808 74 5 0.0 39.416 21.940 31.231
809 74 5 0.0 38.965 22.036 31.037
810 74 5 0.0 38.515 22.132 30.842
811 74 5 0.0 39.866 21.845 31.426
812 74 5 0.0 39.416 21.940 31.231
813 74 5 0.0 38.965 22.036 31.037
814 74 5 0.0 38.515 22.132 30.842
815 75 2 0.0 30.019 29.643 15.753
816 75 3 0.0 30.238 29.845 15.351
817 75 4 0.0 30.456 30.047 14.949
818 75 5 0.0 30.892 30.450 14.145
819 75 5 0.0 31.111 30.652 13.743
820 75 5 0.0 31.329 30.854 13.341
821 75 5 0.0 31.547 31.056 12.939
822 75 5 0.0 30.892 30.450 14.145
823 75 5 0.0 31.111 30.652 13.743
824 75 5 0.0 31.329 30.854 13.341
825 75 5 0.0 31.547 31.056 12.939
826 76 2 0.0 16.988 19.225 19.110
827 76 3 0.0 16.639 18.973 18.853
828 76 4 0.0 16.291 18.722 18.597
829 76 5 0.0 15.594 18.220 18.085
830 76 5 0.0 15.246 17.969 17.829
831 76 5 0.0 14.898 17.718 17.573
832 76 5 0.0 14.549 17.467 17.317
833 76 5 0.0 15.594 18.220 18.085
834 76 5 0.0 15.246 17.969 17.829
835 76 5 0.0 14.898 17.718 17.573
836 76 5 0.0 14.549 17.467 17.317
837 77 2 0.0 15.497 27.159 31.105
838 77 3 0.0 15.084 27.253 31.371
839 77 4 0.0 14.670 27.347 31.636
840 77 5 0.0 13.844 27.535 32.167
841 77 5 0.0 13.431 27.629 32.433
842 77 5 0.0 13.018 27.723 32.698
843 77 5 0.0 12.605 27.816 32.964
844 77 5 0.0 13.844 27.535 32.167
845 77 5 0.0 13.431 27.629 32.433
846 77 5 0.0 13.018 27.723 32.698
847 77 5 0.0 12.605 27.816 32.964
848 78 2 0.0 24.209 29.832 42.840
849 78 3 0.0 24.231 29.701 42.358
850 78 4 0.0 24.252 29.571 41.876
851 78 5 0.0 24.295 29.310 40.912
852 78 5 0.0 24.316 29.179 40.429
853 78 5 0.0 24.338 29.048 39.947
854 78 5 0.0 24.359 28.918 39.465
855 78 5 0.0 24.295 29.310 40.912
856 78 5 0.0 24.316 29.179 40.429
857 78 5 0.0 24.338 29.048 39.947
858 78 5 0.0 24.359 28.918 39.465
859 79 2 0.0 19.143 42.296 22.037
860 79 3 0.0 19.301 41.829 22.117
861 79 4 0.0 19.459 41.361 22.197
862 79 5 0.0 19.776 40.426 22.357
863 79 5 0.0 19.934 39.959 22.437
864 79 5 0.0 20.092 39.491 22.517
865 79 5 0.0 20.251 39.024 22.597
866 79 5 0.0 19.776 40.426 22.357
867 79 5 0.0 19.934 39.959 22.437
868 79 5 0.0 20.092 39.491 22.517
869 79 5 0.0 20.251 39.024 22.597
870 80 2 0.0 19.301 16.285 29.882
871 80 3 0.0 19.054 15.907 30.094
872 80 4 0.0 18.806 15.528 30.306
873 80 5 0.0 18.310 14.770 30.731
874 80 5 0.0 18.063 14.391 30.943
875 80 5 0.0 17.815 14.012 31.155
876 80 5 0.0 17.567 13.633 31.368
877 80 5 0.0 18.310 14.770 30.731
878 80 5 0.0 18.063 14.391 30.943
879 80 5 0.0 17.815 14.012 31.155
880 80 5 0.0 17.567 13.633 31.368
881 81 2 0.0 27.764 14.162 39.736
882 81 3 0.0 27.689 14.454 39.337
883 81 4 0.0 27.614 14.747 38.939
884 81 5 0.0 27.465 15.333 38.143
885 81 5 0.0 27.390 15.626 37.744
886 81 5 0.0 27.316 15.919 37.346